t 0.00130067 /NodeList/42/DeviceList/0/$ns3::WifiNetDevice/Phy/State/Tx OfdmRate6Mbps ns3::WifiMacHeader (DATA ToDS=0, FromDS=0, MoreFrag=0, Retry=0, MoreData=0 Duration/ID=0us, DA=ff:ff:ff:ff:ff:ff, SA=00:00:00:00:00:2b, BSSID=00:00:00:00:00:2b, FragNumber=0, SeqNumber=0) ns3::LlcSnapHeader (type 0x806) ns3::ArpHeader (request source mac: 00-06-00:00:00:00:00:2b source ipv4: 10.0.0.43 dest ipv4: 10.0.0.31) ns3::WifiMacTrailer ()
t 0.00130067 /NodeList/66/DeviceList/0/$ns3::WifiNetDevice/Phy/State/Tx OfdmRate6Mbps ns3::WifiMacHeader (DATA ToDS=0, FromDS=0, MoreFrag=0, Retry=0, MoreData=0 Duration/ID=0us, DA=ff:ff:ff:ff:ff:ff, SA=00:00:00:00:00:43, BSSID=00:00:00:00:00:43, FragNumber=0, SeqNumber=0) ns3::LlcSnapHeader (type 0x806) ns3::ArpHeader (request source mac: 00-06-00:00:00:00:00:43 source ipv4: 10.0.0.67 dest ipv4: 10.0.0.68) ns3::WifiMacTrailer ()
r 0.00141277 OfdmRate6Mbps/NodeList/32/DeviceList/0/$ns3::WifiNetDevice/Phy/State/RxOk ns3::WifiMacHeader (DATA ToDS=0, FromDS=0, MoreFrag=0, Retry=0, MoreData=0 Duration/ID=0us, DA=ff:ff:ff:ff:ff:ff, SA=00:00:00:00:00:2b, BSSID=00:00:00:00:00:2b, FragNumber=0, SeqNumber=0) ns3::LlcSnapHeader (type 0x806) ns3::ArpHeader (request source mac: 00-06-00:00:00:00:00:2b source ipv4: 10.0.0.43 dest ipv4: 10.0.0.31) ns3::WifiMacTrailer ()
r 0.00141277 OfdmRate6Mbps/NodeList/41/DeviceList/0/$ns3::WifiNetDevice/Phy/State/RxOk ns3::WifiMacHeader (DATA ToDS=0, FromDS=0, MoreFrag=0, Retry=0, MoreData=0 Duration/ID=0us, DA=ff:ff:ff:ff:ff:ff, SA=00:00:00:00:00:2b, BSSID=00:00:00:00:00:2b, FragNumber=0, SeqNumber=0) ns3::LlcSnapHeader (type 0x806) ns3::ArpHeader (request source mac: 00-06-00:00:00:00:00:2b source ipv4: 10.0.0.43 dest ipv4: 10.0.0.31) ns3::WifiMacTrailer ()
r 0.00141277 OfdmRate6Mbps/NodeList/43/DeviceList/0/$ns3::WifiNetDevice/Phy/State/RxOk ns3::WifiMacHeader (DATA ToDS=0, FromDS=0, MoreFrag=0, Retry=0, MoreData=0 Duration/ID=0us, DA=ff:ff:ff:ff:ff:ff, SA=00:00:00:00:00:2b, BSSID=00:00:00:00:00:2b, FragNumber=0, SeqNumber=0) ns3::LlcSnapHeader (type 0x806) ns3::ArpHeader (request source mac: 00-06-00:00:00:00:00:2b source ipv4: 10.0.0.43 dest ipv4: 10.0.0.31) ns3::WifiMacTrailer ()
r 0.00141277 OfdmRate6Mbps/NodeList/52/DeviceList/0/$ns3::WifiNetDevice/Phy/State/RxOk ns3::WifiMacHeader (DATA ToDS=0, FromDS=0, MoreFrag=0, Retry=0, MoreData=0 Duration/ID=0us, DA=ff:ff:ff:ff:ff:ff, SA=00:00:00:00:00:2b, BSSID=00:00:00:00:00:2b, FragNumber=0, SeqNumber=0) ns3::LlcSnapHeader (type 0x806) ns3::ArpHeader (request source mac: 00-06-00:00:00:00:00:2b source ipv4: 10.0.0.43 dest ipv4: 10.0.0.31) ns3::WifiMacTrailer ()
r 0.00141277 OfdmRate6Mbps/NodeList/56/DeviceList/0/$ns3::WifiNetDevice/Phy/State/RxOk ns3::WifiMacHeader (DATA ToDS=0, FromDS=0, MoreFrag=0, Retry=0, MoreData=0 Duration/ID=0us, DA=ff:ff:ff:ff:ff:ff, SA=00:00:00:00:00:43, BSSID=00:00:00:00:00:43, FragNumber=0, SeqNumber=0) ns3::LlcSnapHeader (type 0x806) ns3::ArpHeader (request source mac: 00-06-00:00:00:00:00:43 source ipv4: 10.0.0.67 dest ipv4: 10.0.0.68) ns3::WifiMacTrailer ()
r 0.00141277 OfdmRate6Mbps/NodeList/65/DeviceList/0/$ns3::WifiNetDevice/Phy/State/RxOk ns3::WifiMacHeader (DATA ToDS=0, FromDS=0, MoreFrag=0, Retry=0, MoreData=0 Duration/ID=0us, DA=ff:ff:ff:ff:ff:ff, SA=00:00:00:00:00:43, BSSID=00:00:00:00:00:43, FragNumber=0, SeqNumber=0) ns3::LlcSnapHeader (type 0x806) ns3::ArpHeader (request source mac: 00-06-00:00:00:00:00:43 source ipv4: 10.0.0.67 dest ipv4: 10.0.0.68) ns3::WifiMacTrailer ()
r 0.00141277 OfdmRate6Mbps/NodeList/67/DeviceList/0/$ns3::WifiNetDevice/Phy/State/RxOk ns3::WifiMacHeader (DATA ToDS=0, FromDS=0, MoreFrag=0, Retry=0, MoreData=0 Duration/ID=0us, DA=ff:ff:ff:ff:ff:ff, SA=00:00:00:00:00:43, BSSID=00:00:00:00:00:43, FragNumber=0, SeqNumber=0) ns3::LlcSnapHeader (type 0x806) ns3::ArpHeader (request source mac: 00-06-00:00:00:00:00:43 source ipv4: 10.0.0.67 dest ipv4: 10.0.0.68) ns3::WifiMacTrailer ()
r 0.00141277 OfdmRate6Mbps/NodeList/76/DeviceList/0/$ns3::WifiNetDevice/Phy/State/RxOk ns3::WifiMacHeader (DATA ToDS=0, FromDS=0, MoreFrag=0, Retry=0, MoreData=0 Duration/ID=0us, DA=ff:ff:ff:ff:ff:ff, SA=00:00:00:00:00:43, BSSID=00:00:00:00:00:43, FragNumber=0, SeqNumber=0) ns3::LlcSnapHeader (type 0x806) ns3::ArpHeader (request source mac: 00-06-00:00:00:00:00:43 source ipv4: 10.0.0.67 dest ipv4: 10.0.0.68) ns3::WifiMacTrailer ()
r 0.00141281 OfdmRate6Mbps/NodeList/31/DeviceList/0/$ns3::WifiNetDevice/Phy/State/RxOk ns3::WifiMacHeader (DATA ToDS=0, FromDS=0, MoreFrag=0, Retry=0, MoreData=0 Duration/ID=0us, DA=ff:ff:ff:ff:ff:ff, SA=00:00:00:00:00:2b, BSSID=00:00:00:00:00:2b, FragNumber=0, SeqNumber=0) ns3::LlcSnapHeader (type 0x806) ns3::ArpHeader (request source mac: 00-06-00:00:00:00:00:2b source ipv4: 10.0.0.43 dest ipv4: 10.0.0.31) ns3::WifiMacTrailer ()
r 0.00141281 OfdmRate6Mbps/NodeList/33/DeviceList/0/$ns3::WifiNetDevice/Phy/State/RxOk ns3::WifiMacHeader (DATA ToDS=0, FromDS=0, MoreFrag=0, Retry=0, MoreData=0 Duration/ID=0us, DA=ff:ff:ff:ff:ff:ff, SA=00:00:00:00:00:2b, BSSID=00:00:00:00:00:2b, FragNumber=0, SeqNumber=0) ns3::LlcSnapHeader (type 0x806) ns3::ArpHeader (request source mac: 00-06-00:00:00:00:00:2b source ipv4: 10.0.0.43 dest ipv4: 10.0.0.31) ns3::WifiMacTrailer ()
r 0.00141281 OfdmRate6Mbps/NodeList/51/DeviceList/0/$ns3::WifiNetDevice/Phy/State/RxOk ns3::WifiMacHeader (DATA ToDS=0, FromDS=0, MoreFrag=0, Retry=0, MoreData=0 Duration/ID=0us, DA=ff:ff:ff:ff:ff:ff, SA=00:00:00:00:00:2b, BSSID=00:00:00:00:00:2b, FragNumber=0, SeqNumber=0) ns3::LlcSnapHeader (type 0x806) ns3::ArpHeader (request source mac: 00-06-00:00:00:00:00:2b source ipv4: 10.0.0.43 dest ipv4: 10.0.0.31) ns3::WifiMacTrailer ()
r 0.00141281 OfdmRate6Mbps/NodeList/53/DeviceList/0/$ns3::WifiNetDevice/Phy/State/RxOk ns3::WifiMacHeader (DATA ToDS=0, FromDS=0, MoreFrag=0, Retry=0, MoreData=0 Duration/ID=0us, DA=ff:ff:ff:ff:ff:ff, SA=00:00:00:00:00:2b, BSSID=00:00:00:00:00:2b, FragNumber=0, SeqNumber=0) ns3::LlcSnapHeader (type 0x806) ns3::ArpHeader (request source mac: 00-06-00:00:00:00:00:2b source ipv4: 10.0.0.43 dest ipv4: 10.0.0.31) ns3::WifiMacTrailer ()
r 0.00141281 OfdmRate6Mbps/NodeList/55/DeviceList/0/$ns3::WifiNetDevice/Phy/State/RxOk ns3::WifiMacHeader (DATA ToDS=0, FromDS=0, MoreFrag=0, Retry=0, MoreData=0 Duration/ID=0us, DA=ff:ff:ff:ff:ff:ff, SA=00:00:00:00:00:43, BSSID=00:00:00:00:00:43, FragNumber=0, SeqNumber=0) ns3::LlcSnapHeader (type 0x806) ns3::ArpHeader (request source mac: 00-06-00:00:00:00:00:43 source ipv4: 10.0.0.67 dest ipv4: 10.0.0.68) ns3::WifiMacTrailer ()
r 0.00141281 OfdmRate6Mbps/NodeList/57/DeviceList/0/$ns3::WifiNetDevice/Phy/State/RxOk ns3::WifiMacHeader (DATA ToDS=0, FromDS=0, MoreFrag=0, Retry=0, MoreData=0 Duration/ID=0us, DA=ff:ff:ff:ff:ff:ff, SA=00:00:00:00:00:43, BSSID=00:00:00:00:00:43, FragNumber=0, SeqNumber=0) ns3::LlcSnapHeader (type 0x806) ns3::ArpHeader (request source mac: 00-06-00:00:00:00:00:43 source ipv4: 10.0.0.67 dest ipv4: 10.0.0.68) ns3::WifiMacTrailer ()
r 0.00141281 OfdmRate6Mbps/NodeList/75/DeviceList/0/$ns3::WifiNetDevice/Phy/State/RxOk ns3::WifiMacHeader (DATA ToDS=0, FromDS=0, MoreFrag=0, Retry=0, MoreData=0 Duration/ID=0us, DA=ff:ff:ff:ff:ff:ff, SA=00:00:00:00:00:43, BSSID=00:00:00:00:00:43, FragNumber=0, SeqNumber=0) ns3::LlcSnapHeader (type 0x806) ns3::ArpHeader (request source mac: 00-06-00:00:00:00:00:43 source ipv4: 10.0.0.67 dest ipv4: 10.0.0.68) ns3::WifiMacTrailer ()
r 0.00141281 OfdmRate6Mbps/NodeList/77/DeviceList/0/$ns3::WifiNetDevice/Phy/State/RxOk ns3::WifiMacHeader (DATA ToDS=0, FromDS=0, MoreFrag=0, Retry=0, MoreData=0 Duration/ID=0us, DA=ff:ff:ff:ff:ff:ff, SA=00:00:00:00:00:43, BSSID=00:00:00:00:00:43, FragNumber=0, SeqNumber=0) ns3::LlcSnapHeader (type 0x806) ns3::ArpHeader (request source mac: 00-06-00:00:00:00:00:43 source ipv4: 10.0.0.67 dest ipv4: 10.0.0.68) ns3::WifiMacTrailer ()
t 0.00144677 /NodeList/67/DeviceList/0/$ns3::WifiNetDevice/Phy/State/Tx OfdmRate54Mbps ns3::WifiMacHeader (DATA ToDS=0, FromDS=0, MoreFrag=0, Retry=0, MoreData=0 Duration/ID=44us, DA=00:00:00:00:00:43, SA=00:00:00:00:00:44, BSSID=00:00:00:00:00:44, FragNumber=0, SeqNumber=0) ns3::LlcSnapHeader (type 0x806) ns3::ArpHeader (reply source mac: 00-06-00:00:00:00:00:44 source ipv4: 10.0.0.68 dest mac: 00-06-00:00:00:00:00:43 dest ipv4: 10.0.0.67) ns3::WifiMacTrailer ()
r 0.00147887 OfdmRate54Mbps/NodeList/57/DeviceList/0/$ns3::WifiNetDevice/Phy/State/RxOk ns3::WifiMacHeader (DATA ToDS=0, FromDS=0, MoreFrag=0, Retry=0, MoreData=0 Duration/ID=44us, DA=00:00:00:00:00:43, SA=00:00:00:00:00:44, BSSID=00:00:00:00:00:44, FragNumber=0, SeqNumber=0) ns3::LlcSnapHeader (type 0x806) ns3::ArpHeader (reply source mac: 00-06-00:00:00:00:00:44 source ipv4: 10.0.0.68 dest mac: 00-06-00:00:00:00:00:43 dest ipv4: 10.0.0.67) ns3::WifiMacTrailer ()
r 0.00147887 OfdmRate54Mbps/NodeList/68/DeviceList/0/$ns3::WifiNetDevice/Phy/State/RxOk ns3::WifiMacHeader (DATA ToDS=0, FromDS=0, MoreFrag=0, Retry=0, MoreData=0 Duration/ID=44us, DA=00:00:00:00:00:43, SA=00:00:00:00:00:44, BSSID=00:00:00:00:00:44, FragNumber=0, SeqNumber=0) ns3::LlcSnapHeader (type 0x806) ns3::ArpHeader (reply source mac: 00-06-00:00:00:00:00:44 source ipv4: 10.0.0.68 dest mac: 00-06-00:00:00:00:00:43 dest ipv4: 10.0.0.67) ns3::WifiMacTrailer ()
r 0.00147887 OfdmRate54Mbps/NodeList/77/DeviceList/0/$ns3::WifiNetDevice/Phy/State/RxOk ns3::WifiMacHeader (DATA ToDS=0, FromDS=0, MoreFrag=0, Retry=0, MoreData=0 Duration/ID=44us, DA=00:00:00:00:00:43, SA=00:00:00:00:00:44, BSSID=00:00:00:00:00:44, FragNumber=0, SeqNumber=0) ns3::LlcSnapHeader (type 0x806) ns3::ArpHeader (reply source mac: 00-06-00:00:00:00:00:44 source ipv4: 10.0.0.68 dest mac: 00-06-00:00:00:00:00:43 dest ipv4: 10.0.0.67) ns3::WifiMacTrailer ()
t 0.00158477 /NodeList/67/DeviceList/0/$ns3::WifiNetDevice/Phy/State/Tx OfdmRate6Mbps ns3::WifiMacHeader (CTL_RTS Duration/ID=152us, RA=00:00:00:00:00:43, TA=00:00:00:00:00:44) ns3::WifiMacTrailer ()
r 0.00163687 OfdmRate6Mbps/NodeList/57/DeviceList/0/$ns3::WifiNetDevice/Phy/State/RxOk ns3::WifiMacHeader (CTL_RTS Duration/ID=152us, RA=00:00:00:00:00:43, TA=00:00:00:00:00:44) ns3::WifiMacTrailer ()
r 0.00163687 OfdmRate6Mbps/NodeList/66/DeviceList/0/$ns3::WifiNetDevice/Phy/State/RxOk ns3::WifiMacHeader (CTL_RTS Duration/ID=152us, RA=00:00:00:00:00:43, TA=00:00:00:00:00:44) ns3::WifiMacTrailer ()
r 0.00163687 OfdmRate6Mbps/NodeList/68/DeviceList/0/$ns3::WifiNetDevice/Phy/State/RxOk ns3::WifiMacHeader (CTL_RTS Duration/ID=152us, RA=00:00:00:00:00:43, TA=00:00:00:00:00:44) ns3::WifiMacTrailer ()
r 0.00163687 OfdmRate6Mbps/NodeList/77/DeviceList/0/$ns3::WifiNetDevice/Phy/State/RxOk ns3::WifiMacHeader (CTL_RTS Duration/ID=152us, RA=00:00:00:00:00:43, TA=00:00:00:00:00:44) ns3::WifiMacTrailer ()
r 0.00163691 OfdmRate6Mbps/NodeList/56/DeviceList/0/$ns3::WifiNetDevice/Phy/State/RxOk ns3::WifiMacHeader (CTL_RTS Duration/ID=152us, RA=00:00:00:00:00:43, TA=00:00:00:00:00:44) ns3::WifiMacTrailer ()
r 0.00163691 OfdmRate6Mbps/NodeList/58/DeviceList/0/$ns3::WifiNetDevice/Phy/State/RxOk ns3::WifiMacHeader (CTL_RTS Duration/ID=152us, RA=00:00:00:00:00:43, TA=00:00:00:00:00:44) ns3::WifiMacTrailer ()
r 0.00163691 OfdmRate6Mbps/NodeList/76/DeviceList/0/$ns3::WifiNetDevice/Phy/State/RxOk ns3::WifiMacHeader (CTL_RTS Duration/ID=152us, RA=00:00:00:00:00:43, TA=00:00:00:00:00:44) ns3::WifiMacTrailer ()
r 0.00163691 OfdmRate6Mbps/NodeList/78/DeviceList/0/$ns3::WifiNetDevice/Phy/State/RxOk ns3::WifiMacHeader (CTL_RTS Duration/ID=152us, RA=00:00:00:00:00:43, TA=00:00:00:00:00:44) ns3::WifiMacTrailer ()
t 0.00165287 /NodeList/66/DeviceList/0/$ns3::WifiNetDevice/Phy/State/Tx OfdmRate6Mbps ns3::WifiMacHeader (CTL_CTS Duration/ID=92us, RA=00:00:00:00:00:44) ns3::WifiMacTrailer ()
r 0.00169697 OfdmRate6Mbps/NodeList/56/DeviceList/0/$ns3::WifiNetDevice/Phy/State/RxOk ns3::WifiMacHeader (CTL_CTS Duration/ID=92us, RA=00:00:00:00:00:44) ns3::WifiMacTrailer ()
r 0.00169697 OfdmRate6Mbps/NodeList/65/DeviceList/0/$ns3::WifiNetDevice/Phy/State/RxOk ns3::WifiMacHeader (CTL_CTS Duration/ID=92us, RA=00:00:00:00:00:44) ns3::WifiMacTrailer ()
r 0.00169697 OfdmRate6Mbps/NodeList/67/DeviceList/0/$ns3::WifiNetDevice/Phy/State/RxOk ns3::WifiMacHeader (CTL_CTS Duration/ID=92us, RA=00:00:00:00:00:44) ns3::WifiMacTrailer ()
r 0.00169697 OfdmRate6Mbps/NodeList/76/DeviceList/0/$ns3::WifiNetDevice/Phy/State/RxOk ns3::WifiMacHeader (CTL_CTS Duration/ID=92us, RA=00:00:00:00:00:44) ns3::WifiMacTrailer ()
r 0.00169701 OfdmRate6Mbps/NodeList/55/DeviceList/0/$ns3::WifiNetDevice/Phy/State/RxOk ns3::WifiMacHeader (CTL_CTS Duration/ID=92us, RA=00:00:00:00:00:44) ns3::WifiMacTrailer ()
r 0.00169701 OfdmRate6Mbps/NodeList/57/DeviceList/0/$ns3::WifiNetDevice/Phy/State/RxOk ns3::WifiMacHeader (CTL_CTS Duration/ID=92us, RA=00:00:00:00:00:44) ns3::WifiMacTrailer ()
r 0.00169701 OfdmRate6Mbps/NodeList/75/DeviceList/0/$ns3::WifiNetDevice/Phy/State/RxOk ns3::WifiMacHeader (CTL_CTS Duration/ID=92us, RA=00:00:00:00:00:44) ns3::WifiMacTrailer ()
r 0.00169701 OfdmRate6Mbps/NodeList/77/DeviceList/0/$ns3::WifiNetDevice/Phy/State/RxOk ns3::WifiMacHeader (CTL_CTS Duration/ID=92us, RA=00:00:00:00:00:44) ns3::WifiMacTrailer ()
t 0.00171297 /NodeList/67/DeviceList/0/$ns3::WifiNetDevice/Phy/State/Tx OfdmRate54Mbps ns3::WifiMacHeader (DATA ToDS=0, FromDS=0, MoreFrag=0, Retry=1, MoreData=0 Duration/ID=44us, DA=00:00:00:00:00:43, SA=00:00:00:00:00:44, BSSID=00:00:00:00:00:44, FragNumber=0, SeqNumber=0) ns3::LlcSnapHeader (type 0x806) ns3::ArpHeader (reply source mac: 00-06-00:00:00:00:00:44 source ipv4: 10.0.0.68 dest mac: 00-06-00:00:00:00:00:43 dest ipv4: 10.0.0.67) ns3::WifiMacTrailer ()
r 0.00174507 OfdmRate54Mbps/NodeList/57/DeviceList/0/$ns3::WifiNetDevice/Phy/State/RxOk ns3::WifiMacHeader (DATA ToDS=0, FromDS=0, MoreFrag=0, Retry=1, MoreData=0 Duration/ID=44us, DA=00:00:00:00:00:43, SA=00:00:00:00:00:44, BSSID=00:00:00:00:00:44, FragNumber=0, SeqNumber=0) ns3::LlcSnapHeader (type 0x806) ns3::ArpHeader (reply source mac: 00-06-00:00:00:00:00:44 source ipv4: 10.0.0.68 dest mac: 00-06-00:00:00:00:00:43 dest ipv4: 10.0.0.67) ns3::WifiMacTrailer ()
r 0.00174507 OfdmRate54Mbps/NodeList/66/DeviceList/0/$ns3::WifiNetDevice/Phy/State/RxOk ns3::WifiMacHeader (DATA ToDS=0, FromDS=0, MoreFrag=0, Retry=1, MoreData=0 Duration/ID=44us, DA=00:00:00:00:00:43, SA=00:00:00:00:00:44, BSSID=00:00:00:00:00:44, FragNumber=0, SeqNumber=0) ns3::LlcSnapHeader (type 0x806) ns3::ArpHeader (reply source mac: 00-06-00:00:00:00:00:44 source ipv4: 10.0.0.68 dest mac: 00-06-00:00:00:00:00:43 dest ipv4: 10.0.0.67) ns3::WifiMacTrailer ()
r 0.00174507 OfdmRate54Mbps/NodeList/68/DeviceList/0/$ns3::WifiNetDevice/Phy/State/RxOk ns3::WifiMacHeader (DATA ToDS=0, FromDS=0, MoreFrag=0, Retry=1, MoreData=0 Duration/ID=44us, DA=00:00:00:00:00:43, SA=00:00:00:00:00:44, BSSID=00:00:00:00:00:44, FragNumber=0, SeqNumber=0) ns3::LlcSnapHeader (type 0x806) ns3::ArpHeader (reply source mac: 00-06-00:00:00:00:00:44 source ipv4: 10.0.0.68 dest mac: 00-06-00:00:00:00:00:43 dest ipv4: 10.0.0.67) ns3::WifiMacTrailer ()
r 0.00174507 OfdmRate54Mbps/NodeList/77/DeviceList/0/$ns3::WifiNetDevice/Phy/State/RxOk ns3::WifiMacHeader (DATA ToDS=0, FromDS=0, MoreFrag=0, Retry=1, MoreData=0 Duration/ID=44us, DA=00:00:00:00:00:43, SA=00:00:00:00:00:44, BSSID=00:00:00:00:00:44, FragNumber=0, SeqNumber=0) ns3::LlcSnapHeader (type 0x806) ns3::ArpHeader (reply source mac: 00-06-00:00:00:00:00:44 source ipv4: 10.0.0.68 dest mac: 00-06-00:00:00:00:00:43 dest ipv4: 10.0.0.67) ns3::WifiMacTrailer ()
t 0.00176107 /NodeList/66/DeviceList/0/$ns3::WifiNetDevice/Phy/State/Tx OfdmRate24Mbps ns3::WifiMacHeader (CTL_ACK Duration/ID=0us, RA=00:00:00:00:00:44) ns3::WifiMacTrailer ()
r 0.00178917 OfdmRate24Mbps/NodeList/56/DeviceList/0/$ns3::WifiNetDevice/Phy/State/RxOk ns3::WifiMacHeader (CTL_ACK Duration/ID=0us, RA=00:00:00:00:00:44) ns3::WifiMacTrailer ()
r 0.00178917 OfdmRate24Mbps/NodeList/65/DeviceList/0/$ns3::WifiNetDevice/Phy/State/RxOk ns3::WifiMacHeader (CTL_ACK Duration/ID=0us, RA=00:00:00:00:00:44) ns3::WifiMacTrailer ()
r 0.00178917 OfdmRate24Mbps/NodeList/67/DeviceList/0/$ns3::WifiNetDevice/Phy/State/RxOk ns3::WifiMacHeader (CTL_ACK Duration/ID=0us, RA=00:00:00:00:00:44) ns3::WifiMacTrailer ()
r 0.00178917 OfdmRate24Mbps/NodeList/76/DeviceList/0/$ns3::WifiNetDevice/Phy/State/RxOk ns3::WifiMacHeader (CTL_ACK Duration/ID=0us, RA=00:00:00:00:00:44) ns3::WifiMacTrailer ()
r 0.00178921 OfdmRate24Mbps/NodeList/55/DeviceList/0/$ns3::WifiNetDevice/Phy/State/RxOk ns3::WifiMacHeader (CTL_ACK Duration/ID=0us, RA=00:00:00:00:00:44) ns3::WifiMacTrailer ()
r 0.00178921 OfdmRate24Mbps/NodeList/57/DeviceList/0/$ns3::WifiNetDevice/Phy/State/RxOk ns3::WifiMacHeader (CTL_ACK Duration/ID=0us, RA=00:00:00:00:00:44) ns3::WifiMacTrailer ()
r 0.00178921 OfdmRate24Mbps/NodeList/75/DeviceList/0/$ns3::WifiNetDevice/Phy/State/RxOk ns3::WifiMacHeader (CTL_ACK Duration/ID=0us, RA=00:00:00:00:00:44) ns3::WifiMacTrailer ()
r 0.00178921 OfdmRate24Mbps/NodeList/77/DeviceList/0/$ns3::WifiNetDevice/Phy/State/RxOk ns3::WifiMacHeader (CTL_ACK Duration/ID=0us, RA=00:00:00:00:00:44) ns3::WifiMacTrailer ()
t 0.00185007 /NodeList/66/DeviceList/0/$ns3::WifiNetDevice/Phy/State/Tx OfdmRate54Mbps ns3::WifiMacHeader (DATA ToDS=0, FromDS=0, MoreFrag=0, Retry=0, MoreData=0 Duration/ID=44us, DA=00:00:00:00:00:44, SA=00:00:00:00:00:43, BSSID=00:00:00:00:00:43, FragNumber=0, SeqNumber=1) ns3::LlcSnapHeader (type 0x800) ns3::Ipv4Header (tos 0x0 DSCP Default ECN Not-ECT ttl 64 id 0 protocol 17 offset (bytes) 0 flags [none] length: 2028 10.0.0.67 > 10.0.0.68) ns3::UdpHeader (length: 2008 49153 > 5000) Payload (size=2000) ns3::WifiMacTrailer ()
r 0.00217817 OfdmRate54Mbps/NodeList/65/DeviceList/0/$ns3::WifiNetDevice/Phy/State/RxOk ns3::WifiMacHeader (DATA ToDS=0, FromDS=0, MoreFrag=0, Retry=0, MoreData=0 Duration/ID=44us, DA=00:00:00:00:00:44, SA=00:00:00:00:00:43, BSSID=00:00:00:00:00:43, FragNumber=0, SeqNumber=1) ns3::LlcSnapHeader (type 0x800) ns3::Ipv4Header (tos 0x0 DSCP Default ECN Not-ECT ttl 64 id 0 protocol 17 offset (bytes) 0 flags [none] length: 2028 10.0.0.67 > 10.0.0.68) ns3::UdpHeader (length: 2008 49153 > 5000) Payload (size=2000) ns3::WifiMacTrailer ()
r 0.00217817 OfdmRate54Mbps/NodeList/67/DeviceList/0/$ns3::WifiNetDevice/Phy/State/RxOk ns3::WifiMacHeader (DATA ToDS=0, FromDS=0, MoreFrag=0, Retry=0, MoreData=0 Duration/ID=44us, DA=00:00:00:00:00:44, SA=00:00:00:00:00:43, BSSID=00:00:00:00:00:43, FragNumber=0, SeqNumber=1) ns3::LlcSnapHeader (type 0x800) ns3::Ipv4Header (tos 0x0 DSCP Default ECN Not-ECT ttl 64 id 0 protocol 17 offset (bytes) 0 flags [none] length: 2028 10.0.0.67 > 10.0.0.68) ns3::UdpHeader (length: 2008 49153 > 5000) Payload (size=2000) ns3::WifiMacTrailer ()
t 0.00219417 /NodeList/67/DeviceList/0/$ns3::WifiNetDevice/Phy/State/Tx OfdmRate24Mbps ns3::WifiMacHeader (CTL_ACK Duration/ID=0us, RA=00:00:00:00:00:43) ns3::WifiMacTrailer ()
r 0.00222227 OfdmRate24Mbps/NodeList/57/DeviceList/0/$ns3::WifiNetDevice/Phy/State/RxOk ns3::WifiMacHeader (CTL_ACK Duration/ID=0us, RA=00:00:00:00:00:43) ns3::WifiMacTrailer ()
r 0.00222227 OfdmRate24Mbps/NodeList/66/DeviceList/0/$ns3::WifiNetDevice/Phy/State/RxOk ns3::WifiMacHeader (CTL_ACK Duration/ID=0us, RA=00:00:00:00:00:43) ns3::WifiMacTrailer ()
r 0.00222227 OfdmRate24Mbps/NodeList/68/DeviceList/0/$ns3::WifiNetDevice/Phy/State/RxOk ns3::WifiMacHeader (CTL_ACK Duration/ID=0us, RA=00:00:00:00:00:43) ns3::WifiMacTrailer ()
r 0.00222227 OfdmRate24Mbps/NodeList/77/DeviceList/0/$ns3::WifiNetDevice/Phy/State/RxOk ns3::WifiMacHeader (CTL_ACK Duration/ID=0us, RA=00:00:00:00:00:43) ns3::WifiMacTrailer ()
r 0.00222231 OfdmRate24Mbps/NodeList/56/DeviceList/0/$ns3::WifiNetDevice/Phy/State/RxOk ns3::WifiMacHeader (CTL_ACK Duration/ID=0us, RA=00:00:00:00:00:43) ns3::WifiMacTrailer ()
r 0.00222231 OfdmRate24Mbps/NodeList/58/DeviceList/0/$ns3::WifiNetDevice/Phy/State/RxOk ns3::WifiMacHeader (CTL_ACK Duration/ID=0us, RA=00:00:00:00:00:43) ns3::WifiMacTrailer ()
r 0.00222231 OfdmRate24Mbps/NodeList/76/DeviceList/0/$ns3::WifiNetDevice/Phy/State/RxOk ns3::WifiMacHeader (CTL_ACK Duration/ID=0us, RA=00:00:00:00:00:43) ns3::WifiMacTrailer ()
r 0.00222231 OfdmRate24Mbps/NodeList/78/DeviceList/0/$ns3::WifiNetDevice/Phy/State/RxOk ns3::WifiMacHeader (CTL_ACK Duration/ID=0us, RA=00:00:00:00:00:43) ns3::WifiMacTrailer ()
t 0.00230067 /NodeList/22/DeviceList/0/$ns3::WifiNetDevice/Phy/State/Tx OfdmRate6Mbps ns3::WifiMacHeader (DATA ToDS=0, FromDS=0, MoreFrag=0, Retry=0, MoreData=0 Duration/ID=0us, DA=ff:ff:ff:ff:ff:ff, SA=00:00:00:00:00:17, BSSID=00:00:00:00:00:17, FragNumber=0, SeqNumber=0) ns3::LlcSnapHeader (type 0x806) ns3::ArpHeader (request source mac: 00-06-00:00:00:00:00:17 source ipv4: 10.0.0.23 dest ipv4: 10.0.0.42) ns3::WifiMacTrailer ()
t 0.00230067 /NodeList/26/DeviceList/0/$ns3::WifiNetDevice/Phy/State/Tx OfdmRate6Mbps ns3::WifiMacHeader (DATA ToDS=0, FromDS=0, MoreFrag=0, Retry=0, MoreData=0 Duration/ID=0us, DA=ff:ff:ff:ff:ff:ff, SA=00:00:00:00:00:1b, BSSID=00:00:00:00:00:1b, FragNumber=0, SeqNumber=0) ns3::LlcSnapHeader (type 0x806) ns3::ArpHeader (request source mac: 00-06-00:00:00:00:00:1b source ipv4: 10.0.0.27 dest ipv4: 10.0.0.47) ns3::WifiMacTrailer ()
t 0.00235527 /NodeList/66/DeviceList/0/$ns3::WifiNetDevice/Phy/State/Tx OfdmRate54Mbps ns3::WifiMacHeader (DATA ToDS=0, FromDS=0, MoreFrag=0, Retry=0, MoreData=0 Duration/ID=44us, DA=00:00:00:00:00:44, SA=00:00:00:00:00:43, BSSID=00:00:00:00:00:43, FragNumber=0, SeqNumber=2) ns3::LlcSnapHeader (type 0x800) ns3::Ipv4Header (tos 0x0 DSCP Default ECN Not-ECT ttl 64 id 1 protocol 17 offset (bytes) 0 flags [none] length: 2028 10.0.0.67 > 10.0.0.68) ns3::UdpHeader (length: 2008 49153 > 5000) Payload (size=2000) ns3::WifiMacTrailer ()
r 0.00241277 OfdmRate6Mbps/NodeList/12/DeviceList/0/$ns3::WifiNetDevice/Phy/State/RxOk ns3::WifiMacHeader (DATA ToDS=0, FromDS=0, MoreFrag=0, Retry=0, MoreData=0 Duration/ID=0us, DA=ff:ff:ff:ff:ff:ff, SA=00:00:00:00:00:17, BSSID=00:00:00:00:00:17, FragNumber=0, SeqNumber=0) ns3::LlcSnapHeader (type 0x806) ns3::ArpHeader (request source mac: 00-06-00:00:00:00:00:17 source ipv4: 10.0.0.23 dest ipv4: 10.0.0.42) ns3::WifiMacTrailer ()
r 0.00241277 OfdmRate6Mbps/NodeList/21/DeviceList/0/$ns3::WifiNetDevice/Phy/State/RxOk ns3::WifiMacHeader (DATA ToDS=0, FromDS=0, MoreFrag=0, Retry=0, MoreData=0 Duration/ID=0us, DA=ff:ff:ff:ff:ff:ff, SA=00:00:00:00:00:17, BSSID=00:00:00:00:00:17, FragNumber=0, SeqNumber=0) ns3::LlcSnapHeader (type 0x806) ns3::ArpHeader (request source mac: 00-06-00:00:00:00:00:17 source ipv4: 10.0.0.23 dest ipv4: 10.0.0.42) ns3::WifiMacTrailer ()
r 0.00241277 OfdmRate6Mbps/NodeList/23/DeviceList/0/$ns3::WifiNetDevice/Phy/State/RxOk ns3::WifiMacHeader (DATA ToDS=0, FromDS=0, MoreFrag=0, Retry=0, MoreData=0 Duration/ID=0us, DA=ff:ff:ff:ff:ff:ff, SA=00:00:00:00:00:17, BSSID=00:00:00:00:00:17, FragNumber=0, SeqNumber=0) ns3::LlcSnapHeader (type 0x806) ns3::ArpHeader (request source mac: 00-06-00:00:00:00:00:17 source ipv4: 10.0.0.23 dest ipv4: 10.0.0.42) ns3::WifiMacTrailer ()
r 0.00241277 OfdmRate6Mbps/NodeList/32/DeviceList/0/$ns3::WifiNetDevice/Phy/State/RxOk ns3::WifiMacHeader (DATA ToDS=0, FromDS=0, MoreFrag=0, Retry=0, MoreData=0 Duration/ID=0us, DA=ff:ff:ff:ff:ff:ff, SA=00:00:00:00:00:17, BSSID=00:00:00:00:00:17, FragNumber=0, SeqNumber=0) ns3::LlcSnapHeader (type 0x806) ns3::ArpHeader (request source mac: 00-06-00:00:00:00:00:17 source ipv4: 10.0.0.23 dest ipv4: 10.0.0.42) ns3::WifiMacTrailer ()
r 0.00241277 OfdmRate6Mbps/NodeList/16/DeviceList/0/$ns3::WifiNetDevice/Phy/State/RxOk ns3::WifiMacHeader (DATA ToDS=0, FromDS=0, MoreFrag=0, Retry=0, MoreData=0 Duration/ID=0us, DA=ff:ff:ff:ff:ff:ff, SA=00:00:00:00:00:1b, BSSID=00:00:00:00:00:1b, FragNumber=0, SeqNumber=0) ns3::LlcSnapHeader (type 0x806) ns3::ArpHeader (request source mac: 00-06-00:00:00:00:00:1b source ipv4: 10.0.0.27 dest ipv4: 10.0.0.47) ns3::WifiMacTrailer ()
r 0.00241277 OfdmRate6Mbps/NodeList/25/DeviceList/0/$ns3::WifiNetDevice/Phy/State/RxOk ns3::WifiMacHeader (DATA ToDS=0, FromDS=0, MoreFrag=0, Retry=0, MoreData=0 Duration/ID=0us, DA=ff:ff:ff:ff:ff:ff, SA=00:00:00:00:00:1b, BSSID=00:00:00:00:00:1b, FragNumber=0, SeqNumber=0) ns3::LlcSnapHeader (type 0x806) ns3::ArpHeader (request source mac: 00-06-00:00:00:00:00:1b source ipv4: 10.0.0.27 dest ipv4: 10.0.0.47) ns3::WifiMacTrailer ()
r 0.00241277 OfdmRate6Mbps/NodeList/27/DeviceList/0/$ns3::WifiNetDevice/Phy/State/RxOk ns3::WifiMacHeader (DATA ToDS=0, FromDS=0, MoreFrag=0, Retry=0, MoreData=0 Duration/ID=0us, DA=ff:ff:ff:ff:ff:ff, SA=00:00:00:00:00:1b, BSSID=00:00:00:00:00:1b, FragNumber=0, SeqNumber=0) ns3::LlcSnapHeader (type 0x806) ns3::ArpHeader (request source mac: 00-06-00:00:00:00:00:1b source ipv4: 10.0.0.27 dest ipv4: 10.0.0.47) ns3::WifiMacTrailer ()
r 0.00241277 OfdmRate6Mbps/NodeList/36/DeviceList/0/$ns3::WifiNetDevice/Phy/State/RxOk ns3::WifiMacHeader (DATA ToDS=0, FromDS=0, MoreFrag=0, Retry=0, MoreData=0 Duration/ID=0us, DA=ff:ff:ff:ff:ff:ff, SA=00:00:00:00:00:1b, BSSID=00:00:00:00:00:1b, FragNumber=0, SeqNumber=0) ns3::LlcSnapHeader (type 0x806) ns3::ArpHeader (request source mac: 00-06-00:00:00:00:00:1b source ipv4: 10.0.0.27 dest ipv4: 10.0.0.47) ns3::WifiMacTrailer ()
r 0.00241281 OfdmRate6Mbps/NodeList/11/DeviceList/0/$ns3::WifiNetDevice/Phy/State/RxOk ns3::WifiMacHeader (DATA ToDS=0, FromDS=0, MoreFrag=0, Retry=0, MoreData=0 Duration/ID=0us, DA=ff:ff:ff:ff:ff:ff, SA=00:00:00:00:00:17, BSSID=00:00:00:00:00:17, FragNumber=0, SeqNumber=0) ns3::LlcSnapHeader (type 0x806) ns3::ArpHeader (request source mac: 00-06-00:00:00:00:00:17 source ipv4: 10.0.0.23 dest ipv4: 10.0.0.42) ns3::WifiMacTrailer ()
r 0.00241281 OfdmRate6Mbps/NodeList/13/DeviceList/0/$ns3::WifiNetDevice/Phy/State/RxOk ns3::WifiMacHeader (DATA ToDS=0, FromDS=0, MoreFrag=0, Retry=0, MoreData=0 Duration/ID=0us, DA=ff:ff:ff:ff:ff:ff, SA=00:00:00:00:00:17, BSSID=00:00:00:00:00:17, FragNumber=0, SeqNumber=0) ns3::LlcSnapHeader (type 0x806) ns3::ArpHeader (request source mac: 00-06-00:00:00:00:00:17 source ipv4: 10.0.0.23 dest ipv4: 10.0.0.42) ns3::WifiMacTrailer ()
r 0.00241281 OfdmRate6Mbps/NodeList/31/DeviceList/0/$ns3::WifiNetDevice/Phy/State/RxOk ns3::WifiMacHeader (DATA ToDS=0, FromDS=0, MoreFrag=0, Retry=0, MoreData=0 Duration/ID=0us, DA=ff:ff:ff:ff:ff:ff, SA=00:00:00:00:00:17, BSSID=00:00:00:00:00:17, FragNumber=0, SeqNumber=0) ns3::LlcSnapHeader (type 0x806) ns3::ArpHeader (request source mac: 00-06-00:00:00:00:00:17 source ipv4: 10.0.0.23 dest ipv4: 10.0.0.42) ns3::WifiMacTrailer ()
r 0.00241281 OfdmRate6Mbps/NodeList/33/DeviceList/0/$ns3::WifiNetDevice/Phy/State/RxOk ns3::WifiMacHeader (DATA ToDS=0, FromDS=0, MoreFrag=0, Retry=0, MoreData=0 Duration/ID=0us, DA=ff:ff:ff:ff:ff:ff, SA=00:00:00:00:00:17, BSSID=00:00:00:00:00:17, FragNumber=0, SeqNumber=0) ns3::LlcSnapHeader (type 0x806) ns3::ArpHeader (request source mac: 00-06-00:00:00:00:00:17 source ipv4: 10.0.0.23 dest ipv4: 10.0.0.42) ns3::WifiMacTrailer ()
r 0.00241281 OfdmRate6Mbps/NodeList/15/DeviceList/0/$ns3::WifiNetDevice/Phy/State/RxOk ns3::WifiMacHeader (DATA ToDS=0, FromDS=0, MoreFrag=0, Retry=0, MoreData=0 Duration/ID=0us, DA=ff:ff:ff:ff:ff:ff, SA=00:00:00:00:00:1b, BSSID=00:00:00:00:00:1b, FragNumber=0, SeqNumber=0) ns3::LlcSnapHeader (type 0x806) ns3::ArpHeader (request source mac: 00-06-00:00:00:00:00:1b source ipv4: 10.0.0.27 dest ipv4: 10.0.0.47) ns3::WifiMacTrailer ()
r 0.00241281 OfdmRate6Mbps/NodeList/17/DeviceList/0/$ns3::WifiNetDevice/Phy/State/RxOk ns3::WifiMacHeader (DATA ToDS=0, FromDS=0, MoreFrag=0, Retry=0, MoreData=0 Duration/ID=0us, DA=ff:ff:ff:ff:ff:ff, SA=00:00:00:00:00:1b, BSSID=00:00:00:00:00:1b, FragNumber=0, SeqNumber=0) ns3::LlcSnapHeader (type 0x806) ns3::ArpHeader (request source mac: 00-06-00:00:00:00:00:1b source ipv4: 10.0.0.27 dest ipv4: 10.0.0.47) ns3::WifiMacTrailer ()
r 0.00241281 OfdmRate6Mbps/NodeList/35/DeviceList/0/$ns3::WifiNetDevice/Phy/State/RxOk ns3::WifiMacHeader (DATA ToDS=0, FromDS=0, MoreFrag=0, Retry=0, MoreData=0 Duration/ID=0us, DA=ff:ff:ff:ff:ff:ff, SA=00:00:00:00:00:1b, BSSID=00:00:00:00:00:1b, FragNumber=0, SeqNumber=0) ns3::LlcSnapHeader (type 0x806) ns3::ArpHeader (request source mac: 00-06-00:00:00:00:00:1b source ipv4: 10.0.0.27 dest ipv4: 10.0.0.47) ns3::WifiMacTrailer ()
r 0.00241281 OfdmRate6Mbps/NodeList/37/DeviceList/0/$ns3::WifiNetDevice/Phy/State/RxOk ns3::WifiMacHeader (DATA ToDS=0, FromDS=0, MoreFrag=0, Retry=0, MoreData=0 Duration/ID=0us, DA=ff:ff:ff:ff:ff:ff, SA=00:00:00:00:00:1b, BSSID=00:00:00:00:00:1b, FragNumber=0, SeqNumber=0) ns3::LlcSnapHeader (type 0x806) ns3::ArpHeader (request source mac: 00-06-00:00:00:00:00:1b source ipv4: 10.0.0.27 dest ipv4: 10.0.0.47) ns3::WifiMacTrailer ()
t 0.00286127 /NodeList/66/DeviceList/0/$ns3::WifiNetDevice/Phy/State/Tx OfdmRate6Mbps ns3::WifiMacHeader (CTL_RTS Duration/ID=448us, RA=00:00:00:00:00:44, TA=00:00:00:00:00:43) ns3::WifiMacTrailer ()
r 0.00291337 OfdmRate6Mbps/NodeList/56/DeviceList/0/$ns3::WifiNetDevice/Phy/State/RxOk ns3::WifiMacHeader (CTL_RTS Duration/ID=448us, RA=00:00:00:00:00:44, TA=00:00:00:00:00:43) ns3::WifiMacTrailer ()
r 0.00291337 OfdmRate6Mbps/NodeList/65/DeviceList/0/$ns3::WifiNetDevice/Phy/State/RxOk ns3::WifiMacHeader (CTL_RTS Duration/ID=448us, RA=00:00:00:00:00:44, TA=00:00:00:00:00:43) ns3::WifiMacTrailer ()
r 0.00291337 OfdmRate6Mbps/NodeList/67/DeviceList/0/$ns3::WifiNetDevice/Phy/State/RxOk ns3::WifiMacHeader (CTL_RTS Duration/ID=448us, RA=00:00:00:00:00:44, TA=00:00:00:00:00:43) ns3::WifiMacTrailer ()
r 0.00291337 OfdmRate6Mbps/NodeList/76/DeviceList/0/$ns3::WifiNetDevice/Phy/State/RxOk ns3::WifiMacHeader (CTL_RTS Duration/ID=448us, RA=00:00:00:00:00:44, TA=00:00:00:00:00:43) ns3::WifiMacTrailer ()
r 0.00291341 OfdmRate6Mbps/NodeList/55/DeviceList/0/$ns3::WifiNetDevice/Phy/State/RxOk ns3::WifiMacHeader (CTL_RTS Duration/ID=448us, RA=00:00:00:00:00:44, TA=00:00:00:00:00:43) ns3::WifiMacTrailer ()