+ 0.002 /NodeList/1/DeviceList/1/$ns3::CsmaNetDevice/TxQueue/Enqueue ns3::EthernetHeader ( length/type=0x86dd, source=00:00:00:00:00:02, destination=33:33:ff:00:00:02) ns3::Ipv6Header ((Version 6 Traffic class 0x0 DSCP Default Flow Label 0x0 Payload Length 32 Next Header 58 Hop Limit 255 ):: > ff02::1:ff00:2) ns3::Icmpv6NS (( type = 135 (NS) code = 0 target = 2001:0:f00d:cafe:200:ff:fe00:2 checksum = 35741)) ns3::Icmpv6OptionLinkLayerAddress (( type = 1 length = 1 L2 Address = 00-06-00:00:00:00:00:02)) ns3::EthernetTrailer (fcs=0)
- 0.002 /NodeList/1/DeviceList/1/$ns3::CsmaNetDevice/TxQueue/Dequeue ns3::EthernetHeader ( length/type=0x86dd, source=00:00:00:00:00:02, destination=33:33:ff:00:00:02) ns3::Ipv6Header ((Version 6 Traffic class 0x0 DSCP Default Flow Label 0x0 Payload Length 32 Next Header 58 Hop Limit 255 ):: > ff02::1:ff00:2) ns3::Icmpv6NS (( type = 135 (NS) code = 0 target = 2001:0:f00d:cafe:200:ff:fe00:2 checksum = 35741)) ns3::Icmpv6OptionLinkLayerAddress (( type = 1 length = 1 L2 Address = 00-06-00:00:00:00:00:02)) ns3::EthernetTrailer (fcs=0)
+ 0.003 /NodeList/1/DeviceList/1/$ns3::CsmaNetDevice/TxQueue/Enqueue ns3::EthernetHeader ( length/type=0x86dd, source=00:00:00:00:00:02, destination=33:33:ff:00:00:02) ns3::Ipv6Header ((Version 6 Traffic class 0x0 DSCP Default Flow Label 0x0 Payload Length 32 Next Header 58 Hop Limit 255 ):: > ff02::1:ff00:2) ns3::Icmpv6NS (( type = 135 (NS) code = 0 target = fe80::200:ff:fe00:2 checksum = 6266)) ns3::Icmpv6OptionLinkLayerAddress (( type = 1 length = 1 L2 Address = 00-06-00:00:00:00:00:02)) ns3::EthernetTrailer (fcs=0)
- 0.003 /NodeList/1/DeviceList/1/$ns3::CsmaNetDevice/TxQueue/Dequeue ns3::EthernetHeader ( length/type=0x86dd, source=00:00:00:00:00:02, destination=33:33:ff:00:00:02) ns3::Ipv6Header ((Version 6 Traffic class 0x0 DSCP Default Flow Label 0x0 Payload Length 32 Next Header 58 Hop Limit 255 ):: > ff02::1:ff00:2) ns3::Icmpv6NS (( type = 135 (NS) code = 0 target = fe80::200:ff:fe00:2 checksum = 6266)) ns3::Icmpv6OptionLinkLayerAddress (( type = 1 length = 1 L2 Address = 00-06-00:00:00:00:00:02)) ns3::EthernetTrailer (fcs=0)
r 0.004144 /NodeList/0/DeviceList/1/$ns3::CsmaNetDevice/MacRx ns3::EthernetHeader ( length/type=0x86dd, source=00:00:00:00:00:02, destination=33:33:ff:00:00:02) ns3::Ipv6Header ((Version 6 Traffic class 0x0 DSCP Default Flow Label 0x0 Payload Length 32 Next Header 58 Hop Limit 255 ):: > ff02::1:ff00:2) ns3::Icmpv6NS (( type = 135 (NS) code = 0 target = 2001:0:f00d:cafe:200:ff:fe00:2 checksum = 35741)) ns3::Icmpv6OptionLinkLayerAddress (( type = 1 length = 1 L2 Address = 00-06-00:00:00:00:00:02)) ns3::EthernetTrailer (fcs=0)
r 0.006533 /NodeList/0/DeviceList/1/$ns3::CsmaNetDevice/MacRx ns3::EthernetHeader ( length/type=0x86dd, source=00:00:00:00:00:02, destination=33:33:ff:00:00:02) ns3::Ipv6Header ((Version 6 Traffic class 0x0 DSCP Default Flow Label 0x0 Payload Length 32 Next Header 58 Hop Limit 255 ):: > ff02::1:ff00:2) ns3::Icmpv6NS (( type = 135 (NS) code = 0 target = fe80::200:ff:fe00:2 checksum = 6266)) ns3::Icmpv6OptionLinkLayerAddress (( type = 1 length = 1 L2 Address = 00-06-00:00:00:00:00:02)) ns3::EthernetTrailer (fcs=0)
+ 0.007 /NodeList/0/DeviceList/1/$ns3::CsmaNetDevice/TxQueue/Enqueue ns3::EthernetHeader ( length/type=0x86dd, source=00:00:00:00:00:01, destination=33:33:ff:00:00:01) ns3::Ipv6Header ((Version 6 Traffic class 0x0 DSCP Default Flow Label 0x0 Payload Length 32 Next Header 58 Hop Limit 255 ):: > ff02::1:ff00:1) ns3::Icmpv6NS (( type = 135 (NS) code = 0 target = 2001:0:f00d:cafe:200:ff:fe00:1 checksum = 36509)) ns3::Icmpv6OptionLinkLayerAddress (( type = 1 length = 1 L2 Address = 00-06-00:00:00:00:00:01)) ns3::EthernetTrailer (fcs=0)
- 0.007 /NodeList/0/DeviceList/1/$ns3::CsmaNetDevice/TxQueue/Dequeue ns3::EthernetHeader ( length/type=0x86dd, source=00:00:00:00:00:01, destination=33:33:ff:00:00:01) ns3::Ipv6Header ((Version 6 Traffic class 0x0 DSCP Default Flow Label 0x0 Payload Length 32 Next Header 58 Hop Limit 255 ):: > ff02::1:ff00:1) ns3::Icmpv6NS (( type = 135 (NS) code = 0 target = 2001:0:f00d:cafe:200:ff:fe00:1 checksum = 36509)) ns3::Icmpv6OptionLinkLayerAddress (( type = 1 length = 1 L2 Address = 00-06-00:00:00:00:00:01)) ns3::EthernetTrailer (fcs=0)
+ 0.009 /NodeList/0/DeviceList/1/$ns3::CsmaNetDevice/TxQueue/Enqueue ns3::EthernetHeader ( length/type=0x86dd, source=00:00:00:00:00:01, destination=33:33:ff:00:00:01) ns3::Ipv6Header ((Version 6 Traffic class 0x0 DSCP Default Flow Label 0x0 Payload Length 32 Next Header 58 Hop Limit 255 ):: > ff02::1:ff00:1) ns3::Icmpv6NS (( type = 135 (NS) code = 0 target = fe80::200:ff:fe00:1 checksum = 7034)) ns3::Icmpv6OptionLinkLayerAddress (( type = 1 length = 1 L2 Address = 00-06-00:00:00:00:00:01)) ns3::EthernetTrailer (fcs=0)
- 0.009 /NodeList/0/DeviceList/1/$ns3::CsmaNetDevice/TxQueue/Dequeue ns3::EthernetHeader ( length/type=0x86dd, source=00:00:00:00:00:01, destination=33:33:ff:00:00:01) ns3::Ipv6Header ((Version 6 Traffic class 0x0 DSCP Default Flow Label 0x0 Payload Length 32 Next Header 58 Hop Limit 255 ):: > ff02::1:ff00:1) ns3::Icmpv6NS (( type = 135 (NS) code = 0 target = fe80::200:ff:fe00:1 checksum = 7034)) ns3::Icmpv6OptionLinkLayerAddress (( type = 1 length = 1 L2 Address = 00-06-00:00:00:00:00:01)) ns3::EthernetTrailer (fcs=0)
r 0.009144 /NodeList/1/DeviceList/1/$ns3::CsmaNetDevice/MacRx ns3::EthernetHeader ( length/type=0x86dd, source=00:00:00:00:00:01, destination=33:33:ff:00:00:01) ns3::Ipv6Header ((Version 6 Traffic class 0x0 DSCP Default Flow Label 0x0 Payload Length 32 Next Header 58 Hop Limit 255 ):: > ff02::1:ff00:1) ns3::Icmpv6NS (( type = 135 (NS) code = 0 target = 2001:0:f00d:cafe:200:ff:fe00:1 checksum = 36509)) ns3::Icmpv6OptionLinkLayerAddress (( type = 1 length = 1 L2 Address = 00-06-00:00:00:00:00:01)) ns3::EthernetTrailer (fcs=0)
r 0.011315 /NodeList/1/DeviceList/1/$ns3::CsmaNetDevice/MacRx ns3::EthernetHeader ( length/type=0x86dd, source=00:00:00:00:00:01, destination=33:33:ff:00:00:01) ns3::Ipv6Header ((Version 6 Traffic class 0x0 DSCP Default Flow Label 0x0 Payload Length 32 Next Header 58 Hop Limit 255 ):: > ff02::1:ff00:1) ns3::Icmpv6NS (( type = 135 (NS) code = 0 target = fe80::200:ff:fe00:1 checksum = 7034)) ns3::Icmpv6OptionLinkLayerAddress (( type = 1 length = 1 L2 Address = 00-06-00:00:00:00:00:01)) ns3::EthernetTrailer (fcs=0)
+ 1.001 /NodeList/1/DeviceList/1/$ns3::CsmaNetDevice/TxQueue/Enqueue ns3::EthernetHeader ( length/type=0x86dd, source=00:00:00:00:00:02, destination=33:33:00:00:00:02) ns3::Ipv6Header ((Version 6 Traffic class 0x0 DSCP Default Flow Label 0x0 Payload Length 16 Next Header 58 Hop Limit 255 )fe80::200:ff:fe00:2 > ff02::2) ns3::Icmpv6RS (( type = 133 (RS) code = 0 checksum = 10875)) ns3::Icmpv6OptionLinkLayerAddress (( type = 1 length = 1 L2 Address = 00-06-00:00:00:00:00:02)) ns3::EthernetTrailer (fcs=0)
- 1.001 /NodeList/1/DeviceList/1/$ns3::CsmaNetDevice/TxQueue/Dequeue ns3::EthernetHeader ( length/type=0x86dd, source=00:00:00:00:00:02, destination=33:33:00:00:00:02) ns3::Ipv6Header ((Version 6 Traffic class 0x0 DSCP Default Flow Label 0x0 Payload Length 16 Next Header 58 Hop Limit 255 )fe80::200:ff:fe00:2 > ff02::2) ns3::Icmpv6RS (( type = 133 (RS) code = 0 checksum = 10875)) ns3::Icmpv6OptionLinkLayerAddress (( type = 1 length = 1 L2 Address = 00-06-00:00:00:00:00:02)) ns3::EthernetTrailer (fcs=0)
r 1.00312 /NodeList/0/DeviceList/1/$ns3::CsmaNetDevice/MacRx ns3::EthernetHeader ( length/type=0x86dd, source=00:00:00:00:00:02, destination=33:33:00:00:00:02) ns3::Ipv6Header ((Version 6 Traffic class 0x0 DSCP Default Flow Label 0x0 Payload Length 16 Next Header 58 Hop Limit 255 )fe80::200:ff:fe00:2 > ff02::2) ns3::Icmpv6RS (( type = 133 (RS) code = 0 checksum = 10875)) ns3::Icmpv6OptionLinkLayerAddress (( type = 1 length = 1 L2 Address = 00-06-00:00:00:00:00:02)) ns3::EthernetTrailer (fcs=0)
+ 1.008 /NodeList/0/DeviceList/1/$ns3::CsmaNetDevice/TxQueue/Enqueue ns3::EthernetHeader ( length/type=0x86dd, source=00:00:00:00:00:01, destination=33:33:00:00:00:02) ns3::Ipv6Header ((Version 6 Traffic class 0x0 DSCP Default Flow Label 0x0 Payload Length 16 Next Header 58 Hop Limit 255 )fe80::200:ff:fe00:1 > ff02::2) ns3::Icmpv6RS (( type = 133 (RS) code = 0 checksum = 11387)) ns3::Icmpv6OptionLinkLayerAddress (( type = 1 length = 1 L2 Address = 00-06-00:00:00:00:00:01)) ns3::EthernetTrailer (fcs=0)
- 1.008 /NodeList/0/DeviceList/1/$ns3::CsmaNetDevice/TxQueue/Dequeue ns3::EthernetHeader ( length/type=0x86dd, source=00:00:00:00:00:01, destination=33:33:00:00:00:02) ns3::Ipv6Header ((Version 6 Traffic class 0x0 DSCP Default Flow Label 0x0 Payload Length 16 Next Header 58 Hop Limit 255 )fe80::200:ff:fe00:1 > ff02::2) ns3::Icmpv6RS (( type = 133 (RS) code = 0 checksum = 11387)) ns3::Icmpv6OptionLinkLayerAddress (( type = 1 length = 1 L2 Address = 00-06-00:00:00:00:00:01)) ns3::EthernetTrailer (fcs=0)
r 1.01012 /NodeList/1/DeviceList/1/$ns3::CsmaNetDevice/MacRx ns3::EthernetHeader ( length/type=0x86dd, source=00:00:00:00:00:01, destination=33:33:00:00:00:02) ns3::Ipv6Header ((Version 6 Traffic class 0x0 DSCP Default Flow Label 0x0 Payload Length 16 Next Header 58 Hop Limit 255 )fe80::200:ff:fe00:1 > ff02::2) ns3::Icmpv6RS (( type = 133 (RS) code = 0 checksum = 11387)) ns3::Icmpv6OptionLinkLayerAddress (( type = 1 length = 1 L2 Address = 00-06-00:00:00:00:00:01)) ns3::EthernetTrailer (fcs=0)
+ 2 /NodeList/0/DeviceList/1/$ns3::CsmaNetDevice/TxQueue/Enqueue ns3::EthernetHeader ( length/type=0x86dd, source=00:00:00:00:00:01, destination=33:33:ff:00:00:02) ns3::Ipv6Header ((Version 6 Traffic class 0x0 DSCP Default Flow Label 0x0 Payload Length 32 Next Header 58 Hop Limit 255 )2001:0:f00d:cafe:200:ff:fe00:1 > ff02::1:ff00:2) ns3::Icmpv6NS (( type = 135 (NS) code = 0 target = 2001:0:f00d:cafe:200:ff:fe00:2 checksum = 32193)) ns3::Icmpv6OptionLinkLayerAddress (( type = 1 length = 1 L2 Address = 00-06-00:00:00:00:00:01)) ns3::EthernetTrailer (fcs=0)
- 2 /NodeList/0/DeviceList/1/$ns3::CsmaNetDevice/TxQueue/Dequeue ns3::EthernetHeader ( length/type=0x86dd, source=00:00:00:00:00:01, destination=33:33:ff:00:00:02) ns3::Ipv6Header ((Version 6 Traffic class 0x0 DSCP Default Flow Label 0x0 Payload Length 32 Next Header 58 Hop Limit 255 )2001:0:f00d:cafe:200:ff:fe00:1 > ff02::1:ff00:2) ns3::Icmpv6NS (( type = 135 (NS) code = 0 target = 2001:0:f00d:cafe:200:ff:fe00:2 checksum = 32193)) ns3::Icmpv6OptionLinkLayerAddress (( type = 1 length = 1 L2 Address = 00-06-00:00:00:00:00:01)) ns3::EthernetTrailer (fcs=0)
r 2.00214 /NodeList/1/DeviceList/1/$ns3::CsmaNetDevice/MacRx ns3::EthernetHeader ( length/type=0x86dd, source=00:00:00:00:00:01, destination=33:33:ff:00:00:02) ns3::Ipv6Header ((Version 6 Traffic class 0x0 DSCP Default Flow Label 0x0 Payload Length 32 Next Header 58 Hop Limit 255 )2001:0:f00d:cafe:200:ff:fe00:1 > ff02::1:ff00:2) ns3::Icmpv6NS (( type = 135 (NS) code = 0 target = 2001:0:f00d:cafe:200:ff:fe00:2 checksum = 32193)) ns3::Icmpv6OptionLinkLayerAddress (( type = 1 length = 1 L2 Address = 00-06-00:00:00:00:00:01)) ns3::EthernetTrailer (fcs=0)
+ 2.00214 /NodeList/1/DeviceList/1/$ns3::CsmaNetDevice/TxQueue/Enqueue ns3::EthernetHeader ( length/type=0x86dd, source=00:00:00:00:00:02, destination=00:00:00:00:00:01) ns3::Ipv6Header ((Version 6 Traffic class 0x0 DSCP Default Flow Label 0x0 Payload Length 32 Next Header 58 Hop Limit 255 )2001:0:f00d:cafe:200:ff:fe00:2 > 2001:0:f00d:cafe:200:ff:fe00:1) ns3::Icmpv6NA (( type = 136 (NA) code = 0 checksum = 29569)) ns3::Icmpv6OptionLinkLayerAddress (( type = 2 length = 1 L2 Address = 00-06-00:00:00:00:00:02)) ns3::EthernetTrailer (fcs=0)
- 2.00214 /NodeList/1/DeviceList/1/$ns3::CsmaNetDevice/TxQueue/Dequeue ns3::EthernetHeader ( length/type=0x86dd, source=00:00:00:00:00:02, destination=00:00:00:00:00:01) ns3::Ipv6Header ((Version 6 Traffic class 0x0 DSCP Default Flow Label 0x0 Payload Length 32 Next Header 58 Hop Limit 255 )2001:0:f00d:cafe:200:ff:fe00:2 > 2001:0:f00d:cafe:200:ff:fe00:1) ns3::Icmpv6NA (( type = 136 (NA) code = 0 checksum = 29569)) ns3::Icmpv6OptionLinkLayerAddress (( type = 2 length = 1 L2 Address = 00-06-00:00:00:00:00:02)) ns3::EthernetTrailer (fcs=0)
r 2.00429 /NodeList/0/DeviceList/1/$ns3::CsmaNetDevice/MacRx ns3::EthernetHeader ( length/type=0x86dd, source=00:00:00:00:00:02, destination=00:00:00:00:00:01) ns3::Ipv6Header ((Version 6 Traffic class 0x0 DSCP Default Flow Label 0x0 Payload Length 32 Next Header 58 Hop Limit 255 )2001:0:f00d:cafe:200:ff:fe00:2 > 2001:0:f00d:cafe:200:ff:fe00:1) ns3::Icmpv6NA (( type = 136 (NA) code = 0 checksum = 29569)) ns3::Icmpv6OptionLinkLayerAddress (( type = 2 length = 1 L2 Address = 00-06-00:00:00:00:00:02)) ns3::EthernetTrailer (fcs=0)
+ 2.00429 /NodeList/0/DeviceList/1/$ns3::CsmaNetDevice/TxQueue/Enqueue ns3::EthernetHeader ( length/type=0x86dd, source=00:00:00:00:00:01, destination=00:00:00:00:00:02) ns3::Ipv6Header ((Version 6 Traffic class 0x0 DSCP Default Flow Label 0x0 Payload Length 1360 Next Header 44 Hop Limit 64 )2001:0:f00d:cafe:200:ff:fe00:1 > 2001:0:f00d:cafe:200:ff:fe00:2) ns3::Ipv6ExtensionFragmentHeader (( nextHeader = 17 length = 8 offset = 0 MF = 1 identification = 2794407255 )) ns3::UdpHeader (length: 2056 49153 > 4000) ns3::SeqTsHeader ((seq=0 time=+2s)) Payload Fragment [0:1332] ns3::EthernetTrailer (fcs=0)
- 2.00429 /NodeList/0/DeviceList/1/$ns3::CsmaNetDevice/TxQueue/Dequeue ns3::EthernetHeader ( length/type=0x86dd, source=00:00:00:00:00:01, destination=00:00:00:00:00:02) ns3::Ipv6Header ((Version 6 Traffic class 0x0 DSCP Default Flow Label 0x0 Payload Length 1360 Next Header 44 Hop Limit 64 )2001:0:f00d:cafe:200:ff:fe00:1 > 2001:0:f00d:cafe:200:ff:fe00:2) ns3::Ipv6ExtensionFragmentHeader (( nextHeader = 17 length = 8 offset = 0 MF = 1 identification = 2794407255 )) ns3::UdpHeader (length: 2056 49153 > 4000) ns3::SeqTsHeader ((seq=0 time=+2s)) Payload Fragment [0:1332] ns3::EthernetTrailer (fcs=0)
+ 2.00429 /NodeList/0/DeviceList/1/$ns3::CsmaNetDevice/TxQueue/Enqueue ns3::EthernetHeader ( length/type=0x86dd, source=00:00:00:00:00:01, destination=00:00:00:00:00:02) ns3::Ipv6Header ((Version 6 Traffic class 0x0 DSCP Default Flow Label 0x0 Payload Length 712 Next Header 44 Hop Limit 64 )2001:0:f00d:cafe:200:ff:fe00:1 > 2001:0:f00d:cafe:200:ff:fe00:2) ns3::Ipv6ExtensionFragmentHeader (( nextHeader = 17 length = 8 offset = 1352 MF = 0 identification = 2794407255 )) Payload Fragment [1332:2036] ns3::EthernetTrailer (fcs=0)
- 2.00658 /NodeList/0/DeviceList/1/$ns3::CsmaNetDevice/TxQueue/Dequeue ns3::EthernetHeader ( length/type=0x86dd, source=00:00:00:00:00:01, destination=00:00:00:00:00:02) ns3::Ipv6Header ((Version 6 Traffic class 0x0 DSCP Default Flow Label 0x0 Payload Length 712 Next Header 44 Hop Limit 64 )2001:0:f00d:cafe:200:ff:fe00:1 > 2001:0:f00d:cafe:200:ff:fe00:2) ns3::Ipv6ExtensionFragmentHeader (( nextHeader = 17 length = 8 offset = 1352 MF = 0 identification = 2794407255 )) Payload Fragment [1332:2036] ns3::EthernetTrailer (fcs=0)
r 2.00856 /NodeList/1/DeviceList/1/$ns3::CsmaNetDevice/MacRx ns3::EthernetHeader ( length/type=0x86dd, source=00:00:00:00:00:01, destination=00:00:00:00:00:02) ns3::Ipv6Header ((Version 6 Traffic class 0x0 DSCP Default Flow Label 0x0 Payload Length 1360 Next Header 44 Hop Limit 64 )2001:0:f00d:cafe:200:ff:fe00:1 > 2001:0:f00d:cafe:200:ff:fe00:2) ns3::Ipv6ExtensionFragmentHeader (( nextHeader = 17 length = 8 offset = 0 MF = 1 identification = 2794407255 )) ns3::UdpHeader (length: 2056 49153 > 4000) ns3::SeqTsHeader ((seq=0 time=+2s)) Payload Fragment [0:1332] ns3::EthernetTrailer (fcs=0)
r 2.01204 /NodeList/1/DeviceList/1/$ns3::CsmaNetDevice/MacRx ns3::EthernetHeader ( length/type=0x86dd, source=00:00:00:00:00:01, destination=00:00:00:00:00:02) ns3::Ipv6Header ((Version 6 Traffic class 0x0 DSCP Default Flow Label 0x0 Payload Length 712 Next Header 44 Hop Limit 64 )2001:0:f00d:cafe:200:ff:fe00:1 > 2001:0:f00d:cafe:200:ff:fe00:2) ns3::Ipv6ExtensionFragmentHeader (( nextHeader = 17 length = 8 offset = 1352 MF = 0 identification = 2794407255 )) Payload Fragment [1332:2036] ns3::EthernetTrailer (fcs=0)
+ 2.2 /NodeList/0/DeviceList/1/$ns3::CsmaNetDevice/TxQueue/Enqueue ns3::EthernetHeader ( length/type=0x86dd, source=00:00:00:00:00:01, destination=00:00:00:00:00:02) ns3::Ipv6Header ((Version 6 Traffic class 0x0 DSCP Default Flow Label 0x0 Payload Length 1360 Next Header 44 Hop Limit 64 )2001:0:f00d:cafe:200:ff:fe00:1 > 2001:0:f00d:cafe:200:ff:fe00:2) ns3::Ipv6ExtensionFragmentHeader (( nextHeader = 17 length = 8 offset = 0 MF = 1 identification = 2356992224 )) ns3::UdpHeader (length: 2056 49153 > 4000) ns3::SeqTsHeader ((seq=1 time=+2.2s)) Payload Fragment [0:1332] ns3::EthernetTrailer (fcs=0)
- 2.2 /NodeList/0/DeviceList/1/$ns3::CsmaNetDevice/TxQueue/Dequeue ns3::EthernetHeader ( length/type=0x86dd, source=00:00:00:00:00:01, destination=00:00:00:00:00:02) ns3::Ipv6Header ((Version 6 Traffic class 0x0 DSCP Default Flow Label 0x0 Payload Length 1360 Next Header 44 Hop Limit 64 )2001:0:f00d:cafe:200:ff:fe00:1 > 2001:0:f00d:cafe:200:ff:fe00:2) ns3::Ipv6ExtensionFragmentHeader (( nextHeader = 17 length = 8 offset = 0 MF = 1 identification = 2356992224 )) ns3::UdpHeader (length: 2056 49153 > 4000) ns3::SeqTsHeader ((seq=1 time=+2.2s)) Payload Fragment [0:1332] ns3::EthernetTrailer (fcs=0)
+ 2.2 /NodeList/0/DeviceList/1/$ns3::CsmaNetDevice/TxQueue/Enqueue ns3::EthernetHeader ( length/type=0x86dd, source=00:00:00:00:00:01, destination=00:00:00:00:00:02) ns3::Ipv6Header ((Version 6 Traffic class 0x0 DSCP Default Flow Label 0x0 Payload Length 712 Next Header 44 Hop Limit 64 )2001:0:f00d:cafe:200:ff:fe00:1 > 2001:0:f00d:cafe:200:ff:fe00:2) ns3::Ipv6ExtensionFragmentHeader (( nextHeader = 17 length = 8 offset = 1352 MF = 0 identification = 2356992224 )) Payload Fragment [1332:2036] ns3::EthernetTrailer (fcs=0)
- 2.20229 /NodeList/0/DeviceList/1/$ns3::CsmaNetDevice/TxQueue/Dequeue ns3::EthernetHeader ( length/type=0x86dd, source=00:00:00:00:00:01, destination=00:00:00:00:00:02) ns3::Ipv6Header ((Version 6 Traffic class 0x0 DSCP Default Flow Label 0x0 Payload Length 712 Next Header 44 Hop Limit 64 )2001:0:f00d:cafe:200:ff:fe00:1 > 2001:0:f00d:cafe:200:ff:fe00:2) ns3::Ipv6ExtensionFragmentHeader (( nextHeader = 17 length = 8 offset = 1352 MF = 0 identification = 2356992224 )) Payload Fragment [1332:2036] ns3::EthernetTrailer (fcs=0)
r 2.20427 /NodeList/1/DeviceList/1/$ns3::CsmaNetDevice/MacRx ns3::EthernetHeader ( length/type=0x86dd, source=00:00:00:00:00:01, destination=00:00:00:00:00:02) ns3::Ipv6Header ((Version 6 Traffic class 0x0 DSCP Default Flow Label 0x0 Payload Length 1360 Next Header 44 Hop Limit 64 )2001:0:f00d:cafe:200:ff:fe00:1 > 2001:0:f00d:cafe:200:ff:fe00:2) ns3::Ipv6ExtensionFragmentHeader (( nextHeader = 17 length = 8 offset = 0 MF = 1 identification = 2356992224 )) ns3::UdpHeader (length: 2056 49153 > 4000) ns3::SeqTsHeader ((seq=1 time=+2.2s)) Payload Fragment [0:1332] ns3::EthernetTrailer (fcs=0)
r 2.20768 /NodeList/1/DeviceList/1/$ns3::CsmaNetDevice/MacRx ns3::EthernetHeader ( length/type=0x86dd, source=00:00:00:00:00:01, destination=00:00:00:00:00:02) ns3::Ipv6Header ((Version 6 Traffic class 0x0 DSCP Default Flow Label 0x0 Payload Length 712 Next Header 44 Hop Limit 64 )2001:0:f00d:cafe:200:ff:fe00:1 > 2001:0:f00d:cafe:200:ff:fe00:2) ns3::Ipv6ExtensionFragmentHeader (( nextHeader = 17 length = 8 offset = 1352 MF = 0 identification = 2356992224 )) Payload Fragment [1332:2036] ns3::EthernetTrailer (fcs=0)
+ 2.4 /NodeList/0/DeviceList/1/$ns3::CsmaNetDevice/TxQueue/Enqueue ns3::EthernetHeader ( length/type=0x86dd, source=00:00:00:00:00:01, destination=00:00:00:00:00:02) ns3::Ipv6Header ((Version 6 Traffic class 0x0 DSCP Default Flow Label 0x0 Payload Length 1360 Next Header 44 Hop Limit 64 )2001:0:f00d:cafe:200:ff:fe00:1 > 2001:0:f00d:cafe:200:ff:fe00:2) ns3::Ipv6ExtensionFragmentHeader (( nextHeader = 17 length = 8 offset = 0 MF = 1 identification = 2396044885 )) ns3::UdpHeader (length: 2056 49153 > 4000) ns3::SeqTsHeader ((seq=2 time=+2.4s)) Payload Fragment [0:1332] ns3::EthernetTrailer (fcs=0)
- 2.4 /NodeList/0/DeviceList/1/$ns3::CsmaNetDevice/TxQueue/Dequeue ns3::EthernetHeader ( length/type=0x86dd, source=00:00:00:00:00:01, destination=00:00:00:00:00:02) ns3::Ipv6Header ((Version 6 Traffic class 0x0 DSCP Default Flow Label 0x0 Payload Length 1360 Next Header 44 Hop Limit 64 )2001:0:f00d:cafe:200:ff:fe00:1 > 2001:0:f00d:cafe:200:ff:fe00:2) ns3::Ipv6ExtensionFragmentHeader (( nextHeader = 17 length = 8 offset = 0 MF = 1 identification = 2396044885 )) ns3::UdpHeader (length: 2056 49153 > 4000) ns3::SeqTsHeader ((seq=2 time=+2.4s)) Payload Fragment [0:1332] ns3::EthernetTrailer (fcs=0)
+ 2.4 /NodeList/0/DeviceList/1/$ns3::CsmaNetDevice/TxQueue/Enqueue ns3::EthernetHeader ( length/type=0x86dd, source=00:00:00:00:00:01, destination=00:00:00:00:00:02) ns3::Ipv6Header ((Version 6 Traffic class 0x0 DSCP Default Flow Label 0x0 Payload Length 712 Next Header 44 Hop Limit 64 )2001:0:f00d:cafe:200:ff:fe00:1 > 2001:0:f00d:cafe:200:ff:fe00:2) ns3::Ipv6ExtensionFragmentHeader (( nextHeader = 17 length = 8 offset = 1352 MF = 0 identification = 2396044885 )) Payload Fragment [1332:2036] ns3::EthernetTrailer (fcs=0)
- 2.40229 /NodeList/0/DeviceList/1/$ns3::CsmaNetDevice/TxQueue/Dequeue ns3::EthernetHeader ( length/type=0x86dd, source=00:00:00:00:00:01, destination=00:00:00:00:00:02) ns3::Ipv6Header ((Version 6 Traffic class 0x0 DSCP Default Flow Label 0x0 Payload Length 712 Next Header 44 Hop Limit 64 )2001:0:f00d:cafe:200:ff:fe00:1 > 2001:0:f00d:cafe:200:ff:fe00:2) ns3::Ipv6ExtensionFragmentHeader (( nextHeader = 17 length = 8 offset = 1352 MF = 0 identification = 2396044885 )) Payload Fragment [1332:2036] ns3::EthernetTrailer (fcs=0)
r 2.40427 /NodeList/1/DeviceList/1/$ns3::CsmaNetDevice/MacRx ns3::EthernetHeader ( length/type=0x86dd, source=00:00:00:00:00:01, destination=00:00:00:00:00:02) ns3::Ipv6Header ((Version 6 Traffic class 0x0 DSCP Default Flow Label 0x0 Payload Length 1360 Next Header 44 Hop Limit 64 )2001:0:f00d:cafe:200:ff:fe00:1 > 2001:0:f00d:cafe:200:ff:fe00:2) ns3::Ipv6ExtensionFragmentHeader (( nextHeader = 17 length = 8 offset = 0 MF = 1 identification = 2396044885 )) ns3::UdpHeader (length: 2056 49153 > 4000) ns3::SeqTsHeader ((seq=2 time=+2.4s)) Payload Fragment [0:1332] ns3::EthernetTrailer (fcs=0)
r 2.40802 /NodeList/1/DeviceList/1/$ns3::CsmaNetDevice/MacRx ns3::EthernetHeader ( length/type=0x86dd, source=00:00:00:00:00:01, destination=00:00:00:00:00:02) ns3::Ipv6Header ((Version 6 Traffic class 0x0 DSCP Default Flow Label 0x0 Payload Length 712 Next Header 44 Hop Limit 64 )2001:0:f00d:cafe:200:ff:fe00:1 > 2001:0:f00d:cafe:200:ff:fe00:2) ns3::Ipv6ExtensionFragmentHeader (( nextHeader = 17 length = 8 offset = 1352 MF = 0 identification = 2396044885 )) Payload Fragment [1332:2036] ns3::EthernetTrailer (fcs=0)
+ 2.6 /NodeList/0/DeviceList/1/$ns3::CsmaNetDevice/TxQueue/Enqueue ns3::EthernetHeader ( length/type=0x86dd, source=00:00:00:00:00:01, destination=00:00:00:00:00:02) ns3::Ipv6Header ((Version 6 Traffic class 0x0 DSCP Default Flow Label 0x0 Payload Length 1360 Next Header 44 Hop Limit 64 )2001:0:f00d:cafe:200:ff:fe00:1 > 2001:0:f00d:cafe:200:ff:fe00:2) ns3::Ipv6ExtensionFragmentHeader (( nextHeader = 17 length = 8 offset = 0 MF = 1 identification = 2518364286 )) ns3::UdpHeader (length: 2056 49153 > 4000) ns3::SeqTsHeader ((seq=3 time=+2.6s)) Payload Fragment [0:1332] ns3::EthernetTrailer (fcs=0)
- 2.6 /NodeList/0/DeviceList/1/$ns3::CsmaNetDevice/TxQueue/Dequeue ns3::EthernetHeader ( length/type=0x86dd, source=00:00:00:00:00:01, destination=00:00:00:00:00:02) ns3::Ipv6Header ((Version 6 Traffic class 0x0 DSCP Default Flow Label 0x0 Payload Length 1360 Next Header 44 Hop Limit 64 )2001:0:f00d:cafe:200:ff:fe00:1 > 2001:0:f00d:cafe:200:ff:fe00:2) ns3::Ipv6ExtensionFragmentHeader (( nextHeader = 17 length = 8 offset = 0 MF = 1 identification = 2518364286 )) ns3::UdpHeader (length: 2056 49153 > 4000) ns3::SeqTsHeader ((seq=3 time=+2.6s)) Payload Fragment [0:1332] ns3::EthernetTrailer (fcs=0)
+ 2.6 /NodeList/0/DeviceList/1/$ns3::CsmaNetDevice/TxQueue/Enqueue ns3::EthernetHeader ( length/type=0x86dd, source=00:00:00:00:00:01, destination=00:00:00:00:00:02) ns3::Ipv6Header ((Version 6 Traffic class 0x0 DSCP Default Flow Label 0x0 Payload Length 712 Next Header 44 Hop Limit 64 )2001:0:f00d:cafe:200:ff:fe00:1 > 2001:0:f00d:cafe:200:ff:fe00:2) ns3::Ipv6ExtensionFragmentHeader (( nextHeader = 17 length = 8 offset = 1352 MF = 0 identification = 2518364286 )) Payload Fragment [1332:2036] ns3::EthernetTrailer (fcs=0)
- 2.60229 /NodeList/0/DeviceList/1/$ns3::CsmaNetDevice/TxQueue/Dequeue ns3::EthernetHeader ( length/type=0x86dd, source=00:00:00:00:00:01, destination=00:00:00:00:00:02) ns3::Ipv6Header ((Version 6 Traffic class 0x0 DSCP Default Flow Label 0x0 Payload Length 712 Next Header 44 Hop Limit 64 )2001:0:f00d:cafe:200:ff:fe00:1 > 2001:0:f00d:cafe:200:ff:fe00:2) ns3::Ipv6ExtensionFragmentHeader (( nextHeader = 17 length = 8 offset = 1352 MF = 0 identification = 2518364286 )) Payload Fragment [1332:2036] ns3::EthernetTrailer (fcs=0)
r 2.60427 /NodeList/1/DeviceList/1/$ns3::CsmaNetDevice/MacRx ns3::EthernetHeader ( length/type=0x86dd, source=00:00:00:00:00:01, destination=00:00:00:00:00:02) ns3::Ipv6Header ((Version 6 Traffic class 0x0 DSCP Default Flow Label 0x0 Payload Length 1360 Next Header 44 Hop Limit 64 )2001:0:f00d:cafe:200:ff:fe00:1 > 2001:0:f00d:cafe:200:ff:fe00:2) ns3::Ipv6ExtensionFragmentHeader (( nextHeader = 17 length = 8 offset = 0 MF = 1 identification = 2518364286 )) ns3::UdpHeader (length: 2056 49153 > 4000) ns3::SeqTsHeader ((seq=3 time=+2.6s)) Payload Fragment [0:1332] ns3::EthernetTrailer (fcs=0)
r 2.60762 /NodeList/1/DeviceList/1/$ns3::CsmaNetDevice/MacRx ns3::EthernetHeader ( length/type=0x86dd, source=00:00:00:00:00:01, destination=00:00:00:00:00:02) ns3::Ipv6Header ((Version 6 Traffic class 0x0 DSCP Default Flow Label 0x0 Payload Length 712 Next Header 44 Hop Limit 64 )2001:0:f00d:cafe:200:ff:fe00:1 > 2001:0:f00d:cafe:200:ff:fe00:2) ns3::Ipv6ExtensionFragmentHeader (( nextHeader = 17 length = 8 offset = 1352 MF = 0 identification = 2518364286 )) Payload Fragment [1332:2036] ns3::EthernetTrailer (fcs=0)
+ 2.8 /NodeList/0/DeviceList/1/$ns3::CsmaNetDevice/TxQueue/Enqueue ns3::EthernetHeader ( length/type=0x86dd, source=00:00:00:00:00:01, destination=00:00:00:00:00:02) ns3::Ipv6Header ((Version 6 Traffic class 0x0 DSCP Default Flow Label 0x0 Payload Length 1360 Next Header 44 Hop Limit 64 )2001:0:f00d:cafe:200:ff:fe00:1 > 2001:0:f00d:cafe:200:ff:fe00:2) ns3::Ipv6ExtensionFragmentHeader (( nextHeader = 17 length = 8 offset = 0 MF = 1 identification = 2255696167 )) ns3::UdpHeader (length: 2056 49153 > 4000) ns3::SeqTsHeader ((seq=4 time=+2.8s)) Payload Fragment [0:1332] ns3::EthernetTrailer (fcs=0)
- 2.8 /NodeList/0/DeviceList/1/$ns3::CsmaNetDevice/TxQueue/Dequeue ns3::EthernetHeader ( length/type=0x86dd, source=00:00:00:00:00:01, destination=00:00:00:00:00:02) ns3::Ipv6Header ((Version 6 Traffic class 0x0 DSCP Default Flow Label 0x0 Payload Length 1360 Next Header 44 Hop Limit 64 )2001:0:f00d:cafe:200:ff:fe00:1 > 2001:0:f00d:cafe:200:ff:fe00:2) ns3::Ipv6ExtensionFragmentHeader (( nextHeader = 17 length = 8 offset = 0 MF = 1 identification = 2255696167 )) ns3::UdpHeader (length: 2056 49153 > 4000) ns3::SeqTsHeader ((seq=4 time=+2.8s)) Payload Fragment [0:1332] ns3::EthernetTrailer (fcs=0)
+ 2.8 /NodeList/0/DeviceList/1/$ns3::CsmaNetDevice/TxQueue/Enqueue ns3::EthernetHeader ( length/type=0x86dd, source=00:00:00:00:00:01, destination=00:00:00:00:00:02) ns3::Ipv6Header ((Version 6 Traffic class 0x0 DSCP Default Flow Label 0x0 Payload Length 712 Next Header 44 Hop Limit 64 )2001:0:f00d:cafe:200:ff:fe00:1 > 2001:0:f00d:cafe:200:ff:fe00:2) ns3::Ipv6ExtensionFragmentHeader (( nextHeader = 17 length = 8 offset = 1352 MF = 0 identification = 2255696167 )) Payload Fragment [1332:2036] ns3::EthernetTrailer (fcs=0)
- 2.80229 /NodeList/0/DeviceList/1/$ns3::CsmaNetDevice/TxQueue/Dequeue ns3::EthernetHeader ( length/type=0x86dd, source=00:00:00:00:00:01, destination=00:00:00:00:00:02) ns3::Ipv6Header ((Version 6 Traffic class 0x0 DSCP Default Flow Label 0x0 Payload Length 712 Next Header 44 Hop Limit 64 )2001:0:f00d:cafe:200:ff:fe00:1 > 2001:0:f00d:cafe:200:ff:fe00:2) ns3::Ipv6ExtensionFragmentHeader (( nextHeader = 17 length = 8 offset = 1352 MF = 0 identification = 2255696167 )) Payload Fragment [1332:2036] ns3::EthernetTrailer (fcs=0)
r 2.80427 /NodeList/1/DeviceList/1/$ns3::CsmaNetDevice/MacRx ns3::EthernetHeader ( length/type=0x86dd, source=00:00:00:00:00:01, destination=00:00:00:00:00:02) ns3::Ipv6Header ((Version 6 Traffic class 0x0 DSCP Default Flow Label 0x0 Payload Length 1360 Next Header 44 Hop Limit 64 )2001:0:f00d:cafe:200:ff:fe00:1 > 2001:0:f00d:cafe:200:ff:fe00:2) ns3::Ipv6ExtensionFragmentHeader (( nextHeader = 17 length = 8 offset = 0 MF = 1 identification = 2255696167 )) ns3::UdpHeader (length: 2056 49153 > 4000) ns3::SeqTsHeader ((seq=4 time=+2.8s)) Payload Fragment [0:1332] ns3::EthernetTrailer (fcs=0)
r 2.80794 /NodeList/1/DeviceList/1/$ns3::CsmaNetDevice/MacRx ns3::EthernetHeader ( length/type=0x86dd, source=00:00:00:00:00:01, destination=00:00:00:00:00:02) ns3::Ipv6Header ((Version 6 Traffic class 0x0 DSCP Default Flow Label 0x0 Payload Length 712 Next Header 44 Hop Limit 64 )2001:0:f00d:cafe:200:ff:fe00:1 > 2001:0:f00d:cafe:200:ff:fe00:2) ns3::Ipv6ExtensionFragmentHeader (( nextHeader = 17 length = 8 offset = 1352 MF = 0 identification = 2255696167 )) Payload Fragment [1332:2036] ns3::EthernetTrailer (fcs=0)